                         Program Version 5.0.4 -  RELEASE  -
|  1> ! B3LYP D3BJ def2-SVP TightSCF XTB Opt PAL8
|  2>
|  3> %geom
|  4>   MaxIter 3000
|  5> end
|  6>
|  7> * xyzfile 0 1 mol.xyz
|  8>
|  9> %pal nprocs 4 # any number (positive integer)
| 10> end
| 11>
| 12>                          ****END OF INPUT****
FINAL SINGLE POINT ENERGY       -74.279064874990
FINAL SINGLE POINT ENERGY       -74.299349273810
FINAL SINGLE POINT ENERGY       -74.302462276050
FINAL SINGLE POINT ENERGY       -74.303097693820
FINAL SINGLE POINT ENERGY       -74.303330994760
FINAL SINGLE POINT ENERGY       -74.303387879000
FINAL SINGLE POINT ENERGY       -74.303427530710
FINAL SINGLE POINT ENERGY       -74.303458619690
FINAL SINGLE POINT ENERGY       -74.303489655400
FINAL SINGLE POINT ENERGY       -74.303522366510
FINAL SINGLE POINT ENERGY       -74.304246398700
FINAL SINGLE POINT ENERGY       -74.304247699270
FINAL SINGLE POINT ENERGY       -74.304248985900
FINAL SINGLE POINT ENERGY       -74.304254469310
FINAL SINGLE POINT ENERGY       -74.304258969870
FINAL SINGLE POINT ENERGY       -74.304262273740
FINAL SINGLE POINT ENERGY       -74.304263990960
FINAL SINGLE POINT ENERGY       -74.304268188540
FINAL SINGLE POINT ENERGY       -74.304269375970
                    ***********************HURRAY********************

CARTESIAN COORDINATES (ANGSTROEM)
---------------------------------
  O     0.596683    0.883215   -2.213006
  C     0.007621    0.532508   -1.202254
  C     0.687479    0.010763    0.002395
  C     2.115045   -0.089885   -0.009508
  N     2.890735    0.238610   -0.971250
  C     4.199712    0.035452   -0.707941
  C     5.259081    0.306058   -1.573557
  C     6.543791    0.042975   -1.154141
  C     6.795104   -0.485286    0.112945
  C     5.764367   -0.762244    0.989287
  C     4.468459   -0.501623    0.577768
  S     2.986040   -0.740014    1.436035
  C    -0.033118   -0.369080    1.106597
  C    -1.436424   -0.289394    1.172888
  C    -2.157035   -0.685447    2.319832
  C    -3.517606   -0.599201    2.363698
  C    -4.260619   -0.107436    1.257023
  C    -5.656100   -0.009486    1.277880
  C    -6.350782    0.474823    0.180289
  C    -5.677613    0.871680   -0.956496
  C    -4.275130    0.792364   -1.026838
  C    -3.550313    1.188700   -2.174214
  C    -2.184085    1.097429   -2.208194
  C    -1.461073    0.609741   -1.109513
  C    -2.149001    0.207616    0.046797
  C    -3.560163    0.297338    0.092312
  H     5.045564    0.714093   -2.548028
  H     7.374109    0.247350   -1.813461
  H     7.813159   -0.681541    0.414449
  H     5.957165   -1.171137    1.969072
  H     0.493852   -0.748520    1.973282
  H    -1.605358   -1.061433    3.169689
  H    -4.057034   -0.905852    3.248317
  H    -6.191827   -0.317171    2.164172
  H    -7.427417    0.543985    0.219250
  H    -6.222198    1.249142   -1.809220
  H    -4.094979    1.566486   -3.027347
  H    -1.623461    1.397939   -3.081177
  C   -13.259821    3.258394   -0.398105
  C   -11.893760    2.825068   -0.308382
  N   -10.806556    2.480150   -0.238638
  H   -13.876752    2.659117    0.270476
  H   -13.328496    4.307164   -0.111578
  H   -13.613128    3.138716   -1.421615

FINAL SINGLE POINT ENERGY       -74.304269553560
                             ****ORCA TERMINATED NORMALLY****
TOTAL RUN TIME: 0 days 0 hours 2 minutes 18 seconds 156 msec
