                         Program Version 5.0.4 -  RELEASE  -
|  1> ! B3LYP D3BJ def2-SVP TightSCF XTB Opt PAL8
|  2>
|  3> %geom
|  4>   MaxIter 3000
|  5> end
|  6>
|  7> * xyzfile 0 1 mol.xyz
|  8>
|  9> %pal nprocs 4 # any number (positive integer)
| 10> end
| 11>
| 12>                          ****END OF INPUT****
FINAL SINGLE POINT ENERGY       -44.110230376830
FINAL SINGLE POINT ENERGY       -44.116280637050
FINAL SINGLE POINT ENERGY       -44.117406974210
FINAL SINGLE POINT ENERGY       -44.117552926210
FINAL SINGLE POINT ENERGY       -44.117822141970
FINAL SINGLE POINT ENERGY       -44.118205161330
FINAL SINGLE POINT ENERGY       -44.118450539560
FINAL SINGLE POINT ENERGY       -44.118710081390
FINAL SINGLE POINT ENERGY       -44.119027572530
FINAL SINGLE POINT ENERGY       -44.119413817810
FINAL SINGLE POINT ENERGY       -44.128201677020
FINAL SINGLE POINT ENERGY       -44.128202645080
FINAL SINGLE POINT ENERGY       -44.128203967430
FINAL SINGLE POINT ENERGY       -44.128205496320
FINAL SINGLE POINT ENERGY       -44.128207091860
FINAL SINGLE POINT ENERGY       -44.128208607730
FINAL SINGLE POINT ENERGY       -44.128209805640
FINAL SINGLE POINT ENERGY       -44.128210522220
FINAL SINGLE POINT ENERGY       -44.128210842190
                    ***********************HURRAY********************

CARTESIAN COORDINATES (ANGSTROEM)
---------------------------------
  N     4.763760   -0.135226    2.245779
  C     3.704292    0.017918    1.833681
  C     2.408278    0.131280    1.291664
  C     1.893396   -0.877365    0.533827
  C     0.586305   -0.756867   -0.009390
  C    -0.021095   -1.745525   -0.799447
  C    -1.285505   -1.568510   -1.293600
  C    -1.993767   -0.388131   -1.013884
  O    -3.232575   -0.266138   -1.524588
  C    -1.414315    0.602904   -0.235497
  C    -0.130878    0.422546    0.265765
  O     0.391520    1.413545    1.017659
  C     1.646850    1.353510    1.568058
  O     2.024140    2.287027    2.223131
  H     2.474779   -1.769477    0.343647
  H     0.530430   -2.648777   -1.009071
  H    -1.765122   -2.318067   -1.901378
  H    -3.626608    0.578936   -1.271920
  H    -1.939713    1.518505   -0.007353
  O     4.400267   -2.893903    0.651514
  H     4.831902   -2.228708    1.197866
  H     5.022088   -3.618473    0.557791

FINAL SINGLE POINT ENERGY       -44.128210955760
                             ****ORCA TERMINATED NORMALLY****
TOTAL RUN TIME: 0 days 0 hours 18 minutes 28 seconds 177 msec
