                         Program Version 5.0.4 -  RELEASE  -
|  1> ! B3LYP D3BJ def2-SVP TightSCF XTB Opt PAL8
|  2>
|  3> %geom
|  4>   MaxIter 3000
|  5> end
|  6>
|  7> * xyzfile 0 1 mol.xyz
|  8>
|  9> %pal nprocs 4 # any number (positive integer)
| 10> end
| 11>
| 12>                          ****END OF INPUT****
FINAL SINGLE POINT ENERGY       -74.278961026000
FINAL SINGLE POINT ENERGY       -74.299248941880
FINAL SINGLE POINT ENERGY       -74.302363185730
FINAL SINGLE POINT ENERGY       -74.302997472870
FINAL SINGLE POINT ENERGY       -74.303228276280
FINAL SINGLE POINT ENERGY       -74.303280764650
FINAL SINGLE POINT ENERGY       -74.303309460130
FINAL SINGLE POINT ENERGY       -74.303337684090
FINAL SINGLE POINT ENERGY       -74.303368768120
FINAL SINGLE POINT ENERGY       -74.303397166290
FINAL SINGLE POINT ENERGY       -74.303728187300
FINAL SINGLE POINT ENERGY       -74.303802843560
FINAL SINGLE POINT ENERGY       -74.303864205440
FINAL SINGLE POINT ENERGY       -74.303927075630
FINAL SINGLE POINT ENERGY       -74.304001479560
FINAL SINGLE POINT ENERGY       -74.304073206320
FINAL SINGLE POINT ENERGY       -74.304144814080
FINAL SINGLE POINT ENERGY       -74.304144219650
FINAL SINGLE POINT ENERGY       -74.304149716920
                    ***********************HURRAY********************

CARTESIAN COORDINATES (ANGSTROEM)
---------------------------------
  O     0.589710    0.790734   -2.204148
  C     0.009682    0.391706   -1.206024
  C     0.704468   -0.090127    0.006388
  C     2.135406   -0.106825    0.011472
  N     2.901825    0.219607   -0.958208
  C     4.217298    0.109565   -0.672861
  C     5.268950    0.398788   -1.541894
  C     6.561858    0.234633   -1.098148
  C     6.828852   -0.213130    0.196522
  C     5.806092   -0.506746    1.076637
  C     4.501907   -0.345014    0.640938
  S     3.026456   -0.626651    1.497688
  C    -0.005785   -0.510378    1.102734
  C    -1.412079   -0.518854    1.149587
  C    -2.121901   -0.956629    2.288191
  C    -3.485596   -0.959320    2.312167
  C    -4.242884   -0.522233    1.192143
  C    -5.641923   -0.516138    1.192828
  C    -6.350246   -0.083052    0.082776
  C    -5.687991    0.350680   -1.047060
  C    -4.282587    0.363867   -1.097059
  C    -3.568570    0.801909   -2.236194
  C    -2.199137    0.801894   -2.249140
  C    -1.461926    0.367966   -1.137360
  C    -2.138985   -0.074243    0.010732
  C    -3.553568   -0.077629    0.035371
  H     5.043297    0.743651   -2.537786
  H     7.386442    0.454882   -1.759521
  H     7.853126   -0.332367    0.516680
  H     6.011075   -0.852924    2.077864
  H     0.532529   -0.855966    1.976528
  H    -1.558910   -1.292152    3.147480
  H    -4.017262   -1.296737    3.190211
  H    -6.169994   -0.854547    2.072346
  H    -7.429541   -0.087784    0.103442
  H    -6.245408    0.686404   -1.909151
  H    -4.124899    1.137909   -3.099208
  H    -1.645752    1.135332   -3.114795
  C   -14.024961   -0.770066   -0.192298
  C   -12.590864   -0.750115   -0.123393
  N   -11.449406   -0.735935   -0.069672
  H   -14.429267   -1.153757    0.743680
  H   -14.395836    0.240504   -0.359541
  H   -14.340924   -1.412308   -1.013537

FINAL SINGLE POINT ENERGY       -74.304150033860
                             ****ORCA TERMINATED NORMALLY****
TOTAL RUN TIME: 0 days 0 hours 2 minutes 2 seconds 804 msec
