                         Program Version 5.0.4 -  RELEASE  -
|  1> ! B3LYP D3BJ def2-SVP TightSCF XTB Opt PAL8
|  2>
|  3> %geom
|  4>   MaxIter 3000
|  5> end
|  6>
|  7> * xyzfile 0 1 mol.xyz
|  8>
|  9> %pal nprocs 4 # any number (positive integer)
| 10> end
| 11>
| 12>                          ****END OF INPUT****
FINAL SINGLE POINT ENERGY       -74.278596518520
FINAL SINGLE POINT ENERGY       -74.298916437600
FINAL SINGLE POINT ENERGY       -74.302046926440
FINAL SINGLE POINT ENERGY       -74.302683142810
FINAL SINGLE POINT ENERGY       -74.302913528360
FINAL SINGLE POINT ENERGY       -74.302964472820
FINAL SINGLE POINT ENERGY       -74.303000336720
FINAL SINGLE POINT ENERGY       -74.303027275100
FINAL SINGLE POINT ENERGY       -74.303058939280
FINAL SINGLE POINT ENERGY       -74.303098098110
FINAL SINGLE POINT ENERGY       -74.308074153480
FINAL SINGLE POINT ENERGY       -74.308085925440
FINAL SINGLE POINT ENERGY       -74.308096146800
FINAL SINGLE POINT ENERGY       -74.308101632280
FINAL SINGLE POINT ENERGY       -74.308103421750
FINAL SINGLE POINT ENERGY       -74.308104934180
FINAL SINGLE POINT ENERGY       -74.308106259580
FINAL SINGLE POINT ENERGY       -74.308107414010
FINAL SINGLE POINT ENERGY       -74.308108349950
                    ***********************HURRAY********************

CARTESIAN COORDINATES (ANGSTROEM)
---------------------------------
  O    -0.011702    1.728194   -1.947593
  C    -0.501700    1.073382   -1.039658
  C     0.288246    0.219013   -0.128537
  C     1.706940    0.158484   -0.308134
  N     2.390362    0.795094   -1.180794
  C     3.716692    0.545378   -1.121503
  C     4.690702    1.101039   -1.950235
  C     6.006939    0.743307   -1.761876
  C     6.373189   -0.158745   -0.762162
  C     5.428418   -0.723257    0.072051
  C     4.102005   -0.370494   -0.108813
  S     2.706901   -0.900513    0.765274
  C    -0.323328   -0.500873    0.866823
  C    -1.712641   -0.476664    1.089394
  C    -2.321649   -1.225354    2.119145
  C    -3.670656   -1.186469    2.318215
  C    -4.513276   -0.390461    1.497001
  C    -5.899594   -0.332372    1.679007
  C    -6.690876    0.456173    0.857985
  C    -6.129751    1.202660   -0.158113
  C    -4.740968    1.175397   -0.378696
  C    -4.131384    1.926406   -1.409654
  C    -2.775945    1.878490   -1.601901
  C    -1.952740    1.088040   -0.785624
  C    -2.526807    0.330861    0.248651
  C    -3.925658    0.371808    0.455742
  H     4.389001    1.795939   -2.716962
  H     6.772099    1.165407   -2.396185
  H     7.413287   -0.420690   -0.637739
  H     5.710084   -1.420796    0.845655
  H     0.283672   -1.118361    1.517314
  H    -1.692796   -1.835332    2.752047
  H    -4.123985   -1.765124    3.110348
  H    -6.349896   -0.912593    2.471753
  H    -7.758951    0.484400    1.017335
  H    -6.743110    1.816907   -0.799209
  H    -4.763380    2.535371   -2.038929
  H    -2.298894    2.447428   -2.386607
  C    -6.968471    4.775972   -4.878661
  C    -6.954732    3.957821   -3.701149
  N    -6.936312    3.305929   -2.762206
  H    -7.916446    4.649106   -5.400120
  H    -6.846374    5.821187   -4.596732
  H    -6.150699    4.480152   -5.534936

FINAL SINGLE POINT ENERGY       -74.308109099660
                             ****ORCA TERMINATED NORMALLY****
TOTAL RUN TIME: 0 days 0 hours 14 minutes 7 seconds 171 msec
