                         Program Version 5.0.4 -  RELEASE  -
|  1> ! B3LYP D3BJ def2-SVP TightSCF XTB Opt PAL8
|  2>
|  3> %geom
|  4>   MaxIter 3000
|  5> end
|  6>
|  7> * xyzfile 0 1 mol.xyz
|  8>
|  9> %pal nprocs 4 # any number (positive integer)
| 10> end
| 11>
| 12>                          ****END OF INPUT****
FINAL SINGLE POINT ENERGY       -43.528680132920
FINAL SINGLE POINT ENERGY       -43.540921975850
FINAL SINGLE POINT ENERGY       -43.543654135300
FINAL SINGLE POINT ENERGY       -43.544069877350
FINAL SINGLE POINT ENERGY       -43.544261879560
FINAL SINGLE POINT ENERGY       -43.544302419710
FINAL SINGLE POINT ENERGY       -43.544326605220
FINAL SINGLE POINT ENERGY       -43.544346430440
FINAL SINGLE POINT ENERGY       -43.544372813520
FINAL SINGLE POINT ENERGY       -43.544459915200
FINAL SINGLE POINT ENERGY       -43.553822587620
FINAL SINGLE POINT ENERGY       -43.553837968880
FINAL SINGLE POINT ENERGY       -43.553860642330
FINAL SINGLE POINT ENERGY       -43.553839161280
FINAL SINGLE POINT ENERGY       -43.553868853760
FINAL SINGLE POINT ENERGY       -43.553873800450
FINAL SINGLE POINT ENERGY       -43.553876389050
FINAL SINGLE POINT ENERGY       -43.553876781480
FINAL SINGLE POINT ENERGY       -43.553877091610
                    ***********************HURRAY********************

CARTESIAN COORDINATES (ANGSTROEM)
---------------------------------
  N     0.202525   -4.000354   -1.732982
  C     0.119637   -2.978004   -1.218425
  C     0.072397   -1.702452   -0.628586
  C     0.896955   -0.702120   -1.078931
  C     0.842583    0.569479   -0.481276
  C     1.665740    1.650330   -0.896054
  C     1.585983    2.859859   -0.297386
  C     0.652844    3.115100    0.801931
  O     0.577387    4.211641    1.347547
  C    -0.177467    1.991902    1.205977
  C    -0.079752    0.777548    0.586209
  O    -0.884747   -0.226598    1.014273
  C    -0.878485   -1.479925    0.474626
  O    -1.627832   -2.304923    0.918484
  H     1.585883   -0.894990   -1.891255
  H     2.356821    1.469617   -1.706727
  H     2.206469    3.687808   -0.604499
  H    -0.878424    2.139306    2.012686
  O     2.425167   -2.272773   -3.352648
  H     3.036483   -2.445465   -4.071892
  H     1.947043   -3.092058   -3.192013

FINAL SINGLE POINT ENERGY       -43.553877282690
                             ****ORCA TERMINATED NORMALLY****
TOTAL RUN TIME: 0 days 0 hours 17 minutes 58 seconds 679 msec
