                         Program Version 5.0.4 -  RELEASE  -
|  1> ! B3LYP D3BJ def2-SVP TightSCF XTB Opt PAL8
|  2>
|  3> %geom
|  4>   MaxIter 3000
|  5> end
|  6>
|  7> * xyzfile 0 1 mol.xyz
|  8>
|  9> %pal nprocs 4 # any number (positive integer)
| 10> end
| 11>
| 12>                          ****END OF INPUT****
FINAL SINGLE POINT ENERGY       -43.530027964140
FINAL SINGLE POINT ENERGY       -43.542240689370
FINAL SINGLE POINT ENERGY       -43.545059978630
FINAL SINGLE POINT ENERGY       -43.545581714520
FINAL SINGLE POINT ENERGY       -43.545869477500
FINAL SINGLE POINT ENERGY       -43.546009091710
FINAL SINGLE POINT ENERGY       -43.546145027610
FINAL SINGLE POINT ENERGY       -43.546282264550
FINAL SINGLE POINT ENERGY       -43.546423849190
FINAL SINGLE POINT ENERGY       -43.546569674030
FINAL SINGLE POINT ENERGY       -43.553957950360
FINAL SINGLE POINT ENERGY       -43.553966651070
FINAL SINGLE POINT ENERGY       -43.553977029420
FINAL SINGLE POINT ENERGY       -43.553985770330
FINAL SINGLE POINT ENERGY       -43.553990821710
FINAL SINGLE POINT ENERGY       -43.553996971130
FINAL SINGLE POINT ENERGY       -43.553999841340
FINAL SINGLE POINT ENERGY       -43.554001200230
FINAL SINGLE POINT ENERGY       -43.554001991390
                    ***********************HURRAY********************

CARTESIAN COORDINATES (ANGSTROEM)
---------------------------------
  N    -0.374463   -4.793252    0.419549
  C    -0.340764   -3.651275    0.522247
  C    -0.275913   -2.249907    0.624370
  C     0.366428   -1.495528   -0.321566
  C     0.446272   -0.100247   -0.172943
  C     1.117046    0.739069   -1.101810
  C     1.179289    2.077112   -0.919427
  C     0.560799    2.725318    0.238195
  O     0.615345    3.939850    0.407985
  C    -0.119178    1.843230    1.171572
  C    -0.168576    0.492601    0.968349
  O    -0.822352   -0.267081    1.879323
  C    -0.891793   -1.624768    1.810630
  O    -1.454969   -2.219599    2.688172
  H     0.825339   -1.970876   -1.177745
  H     1.579000    0.271742   -1.959796
  H     1.688450    2.722365   -1.618936
  H    -0.587640    2.282802    2.038253
  O     1.586466   -1.731448    2.747304
  H     1.849730   -2.633061    2.949260
  H     1.354711   -1.322623    3.585710

FINAL SINGLE POINT ENERGY       -43.554002397760
                             ****ORCA TERMINATED NORMALLY****
TOTAL RUN TIME: 0 days 0 hours 12 minutes 32 seconds 206 msec
