                         Program Version 5.0.4 -  RELEASE  -
|  1> ! B3LYP D3BJ def2-SVP TightSCF XTB Opt PAL8
|  2>
|  3> %geom
|  4>   MaxIter 3000
|  5> end
|  6>
|  7> * xyzfile 0 1 mol.xyz
|  8>
|  9> %pal nprocs 4 # any number (positive integer)
| 10> end
| 11>
| 12>                          ****END OF INPUT****
FINAL SINGLE POINT ENERGY       -43.530215879280
FINAL SINGLE POINT ENERGY       -43.542412825720
FINAL SINGLE POINT ENERGY       -43.545160258500
FINAL SINGLE POINT ENERGY       -43.544803746240
FINAL SINGLE POINT ENERGY       -43.545238950200
FINAL SINGLE POINT ENERGY       -43.545819744180
FINAL SINGLE POINT ENERGY       -43.545937921750
FINAL SINGLE POINT ENERGY       -43.546049670500
FINAL SINGLE POINT ENERGY       -43.546175953560
FINAL SINGLE POINT ENERGY       -43.546319185840
FINAL SINGLE POINT ENERGY       -43.553993797780
FINAL SINGLE POINT ENERGY       -43.553995226440
FINAL SINGLE POINT ENERGY       -43.553997439830
FINAL SINGLE POINT ENERGY       -43.553999279450
FINAL SINGLE POINT ENERGY       -43.554001435380
FINAL SINGLE POINT ENERGY       -43.554003109660
FINAL SINGLE POINT ENERGY       -43.554004308640
FINAL SINGLE POINT ENERGY       -43.554004873650
FINAL SINGLE POINT ENERGY       -43.554005167380
                    ***********************HURRAY********************

CARTESIAN COORDINATES (ANGSTROEM)
---------------------------------
  N    -0.563692   -4.929342   -0.789651
  C    -0.545489   -3.800582   -0.586324
  C    -0.510364   -2.411189   -0.369852
  C     0.372640   -1.607563   -1.041203
  C     0.356408   -0.217722   -0.832788
  C     1.225705    0.676017   -1.513215
  C     1.173504    2.008677   -1.292487
  C     0.223797    2.594828   -0.345232
  O     0.172019    3.804465   -0.142667
  C    -0.652090    1.657710    0.337547
  C    -0.583041    0.313886    0.098088
  O    -1.429255   -0.499700    0.773869
  C    -1.489241   -1.845364    0.578620
  O    -2.301461   -2.482828    1.190982
  H     1.074641   -2.036520   -1.743128
  H     1.929985    0.254783   -2.216406
  H     1.828725    2.695317   -1.806407
  H    -1.366456    2.050841    1.043912
  O    -2.873358   -1.384191   -1.635135
  H    -3.218953   -2.207217   -1.990545
  H    -3.609260   -0.948777   -1.196138

FINAL SINGLE POINT ENERGY       -43.554005329100
                             ****ORCA TERMINATED NORMALLY****
TOTAL RUN TIME: 0 days 0 hours 13 minutes 34 seconds 873 msec
