                         Program Version 5.0.4 -  RELEASE  -
|  1> ! B3LYP D3BJ def2-SVP TightSCF XTB Opt PAL8
|  2>
|  3> %geom
|  4>   MaxIter 3000
|  5> end
|  6>
|  7> * xyzfile 0 1 mol.xyz
|  8>
|  9> %pal nprocs 4 # any number (positive integer)
| 10> end
| 11>
| 12>                          ****END OF INPUT****
FINAL SINGLE POINT ENERGY       -43.528891008900
FINAL SINGLE POINT ENERGY       -43.541122623700
FINAL SINGLE POINT ENERGY       -43.543891287350
FINAL SINGLE POINT ENERGY       -43.544327175300
FINAL SINGLE POINT ENERGY       -43.544547861190
FINAL SINGLE POINT ENERGY       -43.544636023010
FINAL SINGLE POINT ENERGY       -43.544747145490
FINAL SINGLE POINT ENERGY       -43.544898078060
FINAL SINGLE POINT ENERGY       -43.545121204780
FINAL SINGLE POINT ENERGY       -43.545361654360
FINAL SINGLE POINT ENERGY       -43.554753875470
FINAL SINGLE POINT ENERGY       -43.554754401010
FINAL SINGLE POINT ENERGY       -43.554754943210
FINAL SINGLE POINT ENERGY       -43.554755574580
FINAL SINGLE POINT ENERGY       -43.554756617210
FINAL SINGLE POINT ENERGY       -43.554757550960
FINAL SINGLE POINT ENERGY       -43.554758817820
FINAL SINGLE POINT ENERGY       -43.554759279490
FINAL SINGLE POINT ENERGY       -43.554759964640
                    ***********************HURRAY********************

CARTESIAN COORDINATES (ANGSTROEM)
---------------------------------
  N    -1.874997   -3.927499   -1.391119
  C    -1.416955   -3.046211   -0.818327
  C    -0.843594   -1.947316   -0.150042
  C    -0.291355   -0.902169   -0.843852
  C     0.275339    0.184360   -0.152668
  C     0.863439    1.297500   -0.809294
  C     1.398477    2.324132   -0.109001
  C     1.392485    2.331117    1.353476
  O     1.875849    3.261736    2.000558
  C     0.787736    1.184091    2.003249
  C     0.254027    0.158749    1.273658
  O    -0.296346   -0.883819    1.941863
  C    -0.859340   -1.962745    1.325951
  O    -1.322498   -2.838574    2.000527
  H    -0.288604   -0.907780   -1.925448
  H     0.871075    1.299424   -1.889606
  H     1.849195    3.175381   -0.598357
  H     0.766767    1.156116    3.081449
  O     2.888210    5.122410    0.096023
  H     3.348927    5.911571    0.384210
  H     2.617951    4.651822    0.899633

FINAL SINGLE POINT ENERGY       -43.554760446200
                             ****ORCA TERMINATED NORMALLY****
TOTAL RUN TIME: 0 days 0 hours 13 minutes 0 seconds 141 msec
