                         Program Version 5.0.4 -  RELEASE  -
|  1> ! B3LYP D3BJ def2-SVP TightSCF XTB Opt PAL8
|  2>
|  3> %geom
|  4>   MaxIter 3000
|  5> end
|  6>
|  7> * xyzfile 0 1 mol.xyz
|  8>
|  9> %pal nprocs 4 # any number (positive integer)
| 10> end
| 11>
| 12>                          ****END OF INPUT****
FINAL SINGLE POINT ENERGY       -43.529317111500
FINAL SINGLE POINT ENERGY       -43.541554268240
FINAL SINGLE POINT ENERGY       -43.544319289000
FINAL SINGLE POINT ENERGY       -43.544796588740
FINAL SINGLE POINT ENERGY       -43.545087967110
FINAL SINGLE POINT ENERGY       -43.545234727340
FINAL SINGLE POINT ENERGY       -43.545400251150
FINAL SINGLE POINT ENERGY       -43.545589214140
FINAL SINGLE POINT ENERGY       -43.545794840680
FINAL SINGLE POINT ENERGY       -43.546019361710
FINAL SINGLE POINT ENERGY       -43.553908100420
FINAL SINGLE POINT ENERGY       -43.553930736140
FINAL SINGLE POINT ENERGY       -43.553950073310
FINAL SINGLE POINT ENERGY       -43.553967347720
FINAL SINGLE POINT ENERGY       -43.553985496250
FINAL SINGLE POINT ENERGY       -43.553997220680
FINAL SINGLE POINT ENERGY       -43.554002229670
FINAL SINGLE POINT ENERGY       -43.554003383480
FINAL SINGLE POINT ENERGY       -43.554004560220
                    ***********************HURRAY********************

CARTESIAN COORDINATES (ANGSTROEM)
---------------------------------
  N    -0.722733   -4.625477   -1.420783
  C    -0.669563   -3.530635   -1.082720
  C    -0.587996   -2.180493   -0.696691
  C     0.387013   -1.355449   -1.191537
  C     0.419432   -0.001492   -0.815706
  C     1.386688    0.914444   -1.308363
  C     1.380012    2.212076   -0.929394
  C     0.381103    2.735706    0.003748
  O     0.370780    3.913472    0.349810
  C    -0.595352    1.776991    0.492539
  C    -0.570907    0.469565    0.094910
  O    -1.511515   -0.367492    0.593998
  C    -1.618115   -1.674983    0.231313
  O    -2.510113   -2.332287    0.693301
  H     1.126061   -1.738332   -1.882046
  H     2.128417    0.539921   -1.999376
  H     2.109763    2.915707   -1.299869
  H    -1.348671    2.124312    1.182240
  O    -2.782502   -0.888540   -2.014823
  H    -3.132392   -1.656305   -2.474438
  H    -3.533671   -0.456448   -1.599050

FINAL SINGLE POINT ENERGY       -43.554004834630
                             ****ORCA TERMINATED NORMALLY****
TOTAL RUN TIME: 0 days 0 hours 10 minutes 16 seconds 624 msec
