                         Program Version 5.0.4 -  RELEASE  -
|  1> ! B3LYP D3BJ def2-SVP TightSCF XTB Opt PAL8
|  2>
|  3> %geom
|  4>   MaxIter 3000
|  5> end
|  6>
|  7> * xyzfile 0 1 mol.xyz
|  8>
|  9> %pal nprocs 4 # any number (positive integer)
| 10> end
| 11>
| 12>                          ****END OF INPUT****
FINAL SINGLE POINT ENERGY       -44.113599177220
FINAL SINGLE POINT ENERGY       -44.119589732260
FINAL SINGLE POINT ENERGY       -44.120603298740
FINAL SINGLE POINT ENERGY       -44.120869833270
FINAL SINGLE POINT ENERGY       -44.121001749180
FINAL SINGLE POINT ENERGY       -44.121061279670
FINAL SINGLE POINT ENERGY       -44.121116136360
FINAL SINGLE POINT ENERGY       -44.121169941520
FINAL SINGLE POINT ENERGY       -44.121226688290
FINAL SINGLE POINT ENERGY       -44.121284651500
FINAL SINGLE POINT ENERGY       -44.121354154340
FINAL SINGLE POINT ENERGY       -44.121421678090
FINAL SINGLE POINT ENERGY       -44.121417605810
FINAL SINGLE POINT ENERGY       -44.121419086270
FINAL SINGLE POINT ENERGY       -44.121428376320
                    ***********************HURRAY********************

CARTESIAN COORDINATES (ANGSTROEM)
---------------------------------
  N     4.526400   -0.196336    2.059585
  C     3.465182   -0.031986    1.659978
  C     2.160839    0.131867    1.144686
  C     1.615676   -0.788336    0.303040
  C     0.300979   -0.604779   -0.203647
  C    -0.332975   -1.505137   -1.074321
  C    -1.604376   -1.267631   -1.522732
  C    -2.292417   -0.112646   -1.116453
  O    -3.539095    0.072643   -1.587140
  C    -1.685467    0.792384   -0.257770
  C    -0.395806    0.550113    0.198434
  O     0.153626    1.457209    1.032838
  C     1.416882    1.330539    1.551011
  O     1.817502    2.191688    2.285749
  H     2.175624   -1.666622    0.012888
  H     0.195301   -2.393184   -1.383312
  H    -2.101621   -1.953741   -2.188087
  H    -3.917013    0.893235   -1.244949
  H    -2.194401    1.687300    0.068613
  O    -0.859055   -5.978905   -1.844117
  H    -1.637058   -6.540220   -1.835337
  H    -0.095462   -6.559277   -1.871431

FINAL SINGLE POINT ENERGY       -44.121428695830
                             ****ORCA TERMINATED NORMALLY****
TOTAL RUN TIME: 0 days 0 hours 2 minutes 37 seconds 249 msec
