                         Program Version 5.0.4 -  RELEASE  -
|  1> ! B3LYP D3BJ def2-SVP TightSCF XTB Opt PAL8
|  2>
|  3> %geom
|  4>   MaxIter 3000
|  5> end
|  6>
|  7> * xyzfile 0 1 mol.xyz
|  8>
|  9> %pal nprocs 4 # any number (positive integer)
| 10> end
| 11>
| 12>                          ****END OF INPUT****
FINAL SINGLE POINT ENERGY       -43.529385230510
FINAL SINGLE POINT ENERGY       -43.541489250980
FINAL SINGLE POINT ENERGY       -43.544366176630
FINAL SINGLE POINT ENERGY       -43.544811413520
FINAL SINGLE POINT ENERGY       -43.545034115860
FINAL SINGLE POINT ENERGY       -43.545116653490
FINAL SINGLE POINT ENERGY       -43.545198717720
FINAL SINGLE POINT ENERGY       -43.545285541430
FINAL SINGLE POINT ENERGY       -43.545386024730
FINAL SINGLE POINT ENERGY       -43.545503939330
FINAL SINGLE POINT ENERGY       -43.553967308960
FINAL SINGLE POINT ENERGY       -43.553977281500
FINAL SINGLE POINT ENERGY       -43.553984885400
FINAL SINGLE POINT ENERGY       -43.553949514530
FINAL SINGLE POINT ENERGY       -43.553988035850
FINAL SINGLE POINT ENERGY       -43.553990221220
FINAL SINGLE POINT ENERGY       -43.553992639880
FINAL SINGLE POINT ENERGY       -43.553993463180
FINAL SINGLE POINT ENERGY       -43.553994863580
                    ***********************HURRAY********************

CARTESIAN COORDINATES (ANGSTROEM)
---------------------------------
  N    -0.119058   -4.564485    0.979877
  C    -0.138552   -3.417711    0.962302
  C    -0.134102   -2.011803    0.918043
  C     0.370361   -1.334158   -0.160310
  C     0.396385    0.071041   -0.158219
  C     0.926150    0.835809   -1.231443
  C     0.941964    2.186838   -1.188354
  C     0.415274    2.926040   -0.039841
  O     0.427587    4.152826    0.003161
  C    -0.120855    2.118906    1.042934
  C    -0.125411    0.753627    0.979189
  O    -0.643669    0.066818    2.025065
  C    -0.656641   -1.292336    2.095384
  O    -1.099505   -1.815500    3.080964
  H     0.762273   -1.876634   -1.009880
  H     1.319097    0.300983   -2.084393
  H     1.344284    2.776309   -1.998030
  H    -0.518192    2.626497    1.907957
  O     1.923615   -1.166515    2.741870
  H     2.369272   -1.990523    2.954457
  H     1.729709   -0.739144    3.580782

FINAL SINGLE POINT ENERGY       -43.553995320140
                             ****ORCA TERMINATED NORMALLY****
TOTAL RUN TIME: 0 days 0 hours 11 minutes 0 seconds 436 msec
