                         Program Version 5.0.4 -  RELEASE  -
|  1> ! B3LYP D3BJ def2-SVP TightSCF XTB Opt PAL8
|  2>
|  3> %geom
|  4>   MaxIter 3000
|  5> end
|  6>
|  7> * xyzfile 0 1 mol.xyz
|  8>
|  9> %pal nprocs 4 # any number (positive integer)
| 10> end
| 11>
| 12>                          ****END OF INPUT****
FINAL SINGLE POINT ENERGY       -44.112178778050
FINAL SINGLE POINT ENERGY       -44.118210844300
FINAL SINGLE POINT ENERGY       -44.119248534770
FINAL SINGLE POINT ENERGY       -44.119488779310
FINAL SINGLE POINT ENERGY       -44.119564858450
FINAL SINGLE POINT ENERGY       -44.119604570890
FINAL SINGLE POINT ENERGY       -44.119619585920
FINAL SINGLE POINT ENERGY       -44.119635098380
FINAL SINGLE POINT ENERGY       -44.119655735310
FINAL SINGLE POINT ENERGY       -44.119683514370
FINAL SINGLE POINT ENERGY       -44.128199558200
FINAL SINGLE POINT ENERGY       -44.128202080860
FINAL SINGLE POINT ENERGY       -44.128203918190
FINAL SINGLE POINT ENERGY       -44.128205186230
FINAL SINGLE POINT ENERGY       -44.128206352710
FINAL SINGLE POINT ENERGY       -44.128207404420
FINAL SINGLE POINT ENERGY       -44.128208385230
FINAL SINGLE POINT ENERGY       -44.128208972000
FINAL SINGLE POINT ENERGY       -44.128209508200
                    ***********************HURRAY********************

CARTESIAN COORDINATES (ANGSTROEM)
---------------------------------
  N     4.841857   -0.064016    0.429098
  C     3.707309    0.085146    0.349533
  C     2.311956    0.206824    0.192565
  C     1.643187   -0.630152   -0.649393
  C     0.236637   -0.502339   -0.803042
  C    -0.530147   -1.321160   -1.646850
  C    -1.883984   -1.146013   -1.751634
  C    -2.524556   -0.138523   -1.011650
  O    -3.856464   -0.009766   -1.152591
  C    -1.787796    0.682577   -0.170913
  C    -0.413840    0.504093   -0.064739
  O     0.261199    1.325923    0.765472
  C     1.617896    1.248972    0.955525
  O     2.128789    2.024903    1.716910
  H     2.177524   -1.390862   -1.202394
  H    -0.029690   -2.093293   -2.210175
  H    -2.486046   -1.766640   -2.394735
  H    -4.192350    0.708994   -0.601398
  H    -2.258878    1.463252    0.407911
  O     4.142643   -2.383994   -1.671094
  H     4.738994   -3.000367   -2.101052
  H     4.682693   -1.834211   -1.093712

FINAL SINGLE POINT ENERGY       -44.128209819960
                             ****ORCA TERMINATED NORMALLY****
TOTAL RUN TIME: 0 days 0 hours 18 minutes 22 seconds 483 msec
