                         Program Version 5.0.4 -  RELEASE  -
|  1> ! B3LYP D3BJ def2-SVP TightSCF XTB Opt PAL8
|  2>
|  3> %geom
|  4>   MaxIter 3000
|  5> end
|  6>
|  7> * xyzfile 0 1 mol.xyz
|  8>
|  9> %pal nprocs 4 # any number (positive integer)
| 10> end
| 11>
| 12>                          ****END OF INPUT****
FINAL SINGLE POINT ENERGY       -74.278313051820
FINAL SINGLE POINT ENERGY       -74.298579034480
FINAL SINGLE POINT ENERGY       -74.301714530110
FINAL SINGLE POINT ENERGY       -74.302367800360
FINAL SINGLE POINT ENERGY       -74.302611981010
FINAL SINGLE POINT ENERGY       -74.302652185470
FINAL SINGLE POINT ENERGY       -74.302671195650
FINAL SINGLE POINT ENERGY       -74.302676364470
FINAL SINGLE POINT ENERGY       -74.302678829240
FINAL SINGLE POINT ENERGY       -74.302680019040
FINAL SINGLE POINT ENERGY       -74.302917086820
FINAL SINGLE POINT ENERGY       -74.302937215960
FINAL SINGLE POINT ENERGY       -74.302960326470
FINAL SINGLE POINT ENERGY       -74.302987818510
FINAL SINGLE POINT ENERGY       -74.303005957830
FINAL SINGLE POINT ENERGY       -74.303057774750
FINAL SINGLE POINT ENERGY       -74.303093251850
FINAL SINGLE POINT ENERGY       -74.303083696370
FINAL SINGLE POINT ENERGY       -74.303105893000
                    ***********************HURRAY********************

CARTESIAN COORDINATES (ANGSTROEM)
---------------------------------
  O     1.287892    0.907729   -1.979383
  C     0.642890    0.479642   -1.035251
  C     1.253584   -0.143829    0.158575
  C     2.677379   -0.280854    0.202343
  N     3.496170    0.015389   -0.733878
  C     4.789011   -0.213142   -0.418138
  C     5.885631    0.018827   -1.247491
  C     7.147353   -0.266471   -0.775814
  C     7.337960   -0.780409    0.507667
  C     6.269342   -1.019704    1.348857
  C     4.996168   -0.736194    0.884899
  S     3.477784   -0.926378    1.690002
  C     0.473954   -0.578261    1.200706
  C    -0.929457   -0.475270    1.204639
  C    -1.711508   -0.931413    2.287342
  C    -3.071362   -0.826944    2.269867
  C    -3.751640   -0.255849    1.160774
  C    -5.144988   -0.138583    1.119202
  C    -5.776311    0.423999    0.020814
  C    -5.042908    0.880371   -1.054816
  C    -3.640018    0.784742   -1.060291
  C    -2.853814    1.241622   -2.142870
  C    -1.488684    1.133692   -2.113944
  C    -0.828346    0.566835   -1.013899
  C    -1.578299    0.102411    0.078789
  C    -2.988840    0.210104    0.059858
  H     5.718265    0.415956   -2.235318
  H     8.005119   -0.091970   -1.408333
  H     8.339161   -0.994364    0.851127
  H     6.415672   -1.417278    2.341241
  H     0.950970   -1.027507    2.062925
  H    -1.207828   -1.368496    3.137685
  H    -3.658209   -1.179711    3.105644
  H    -5.728725   -0.492946    1.956308
  H    -6.853298    0.505011    0.008922
  H    -5.540816    1.317996   -1.907636
  H    -3.350366    1.679286   -2.996717
  H    -0.880709    1.480903   -2.936408
  C    12.045387    0.828771    1.004190
  C    13.464260    0.759093    1.220666
  N    14.592345    0.702825    1.393193
  H    11.524860    0.530231    1.913498
  H    11.767239    1.849759    0.745436
  H    11.769583    0.160223    0.189429

FINAL SINGLE POINT ENERGY       -74.303106325580
                             ****ORCA TERMINATED NORMALLY****
TOTAL RUN TIME: 0 days 0 hours 7 minutes 40 seconds 506 msec
