                         Program Version 5.0.4 -  RELEASE  -
|  1> ! B3LYP D3BJ def2-SVP TightSCF XTB Opt PAL8
|  2>
|  3> %geom
|  4>   MaxIter 3000
|  5> end
|  6>
|  7> * xyzfile 0 1 mol.xyz
|  8>
|  9> %pal nprocs 4 # any number (positive integer)
| 10> end
| 11>
| 12>                          ****END OF INPUT****
FINAL SINGLE POINT ENERGY       -43.529793555100
FINAL SINGLE POINT ENERGY       -43.541882117620
FINAL SINGLE POINT ENERGY       -43.544780485080
FINAL SINGLE POINT ENERGY       -43.545251244890
FINAL SINGLE POINT ENERGY       -43.545505390760
FINAL SINGLE POINT ENERGY       -43.545610352010
FINAL SINGLE POINT ENERGY       -43.545713511880
FINAL SINGLE POINT ENERGY       -43.545819328960
FINAL SINGLE POINT ENERGY       -43.545933406980
FINAL SINGLE POINT ENERGY       -43.546055860230
FINAL SINGLE POINT ENERGY       -43.553681868460
FINAL SINGLE POINT ENERGY       -43.553692751250
FINAL SINGLE POINT ENERGY       -43.553705078170
FINAL SINGLE POINT ENERGY       -43.553713613390
FINAL SINGLE POINT ENERGY       -43.553717156700
FINAL SINGLE POINT ENERGY       -43.553719243760
FINAL SINGLE POINT ENERGY       -43.553720423150
FINAL SINGLE POINT ENERGY       -43.553721384860
FINAL SINGLE POINT ENERGY       -43.553722154440
                    ***********************HURRAY********************

CARTESIAN COORDINATES (ANGSTROEM)
---------------------------------
  N     0.033991   -4.584423    0.956924
  C    -0.037740   -3.440357    0.921456
  C    -0.101616   -2.036323    0.857161
  C     0.540587   -1.337883   -0.131375
  C     0.480968    0.066205   -0.152624
  C     1.132275    0.853349   -1.139607
  C     1.054095    2.202778   -1.122877
  C     0.298150    2.917662   -0.093099
  O     0.223674    4.142639   -0.076036
  C    -0.357116    2.088136    0.904476
  C    -0.264091    0.724982    0.868626
  O    -0.903337    0.014976    1.829806
  C    -0.858124   -1.339842    1.913805
  O    -1.423509   -1.882786    2.824429
  H     1.103630   -1.862262   -0.891271
  H     1.694193    0.337223   -1.904930
  H     1.545973    2.808987   -1.868187
  H    -0.922388    2.576722    1.682567
  O     1.638369   -1.850882    3.054513
  H     2.377859   -2.437824    3.230211
  H     0.992951   -2.008907    3.749766

FINAL SINGLE POINT ENERGY       -43.553722894130
                             ****ORCA TERMINATED NORMALLY****
TOTAL RUN TIME: 0 days 0 hours 12 minutes 23 seconds 556 msec
